formula,PROPERTY: Nearest DFT Formation Energy (eV),PROPERTY: Tg (K),PROPERTY: Tl (K),PROPERTY: Tx (K),PROPERTY: Trg,PROPERTY: $\gamma$,PROPERTY: $\omega$
Ca55Mg25Ag20,-2.245471158,408.1395,661.8945,432.3881,0.616623225,0.404088163,0.181066096
Ca50Mg30Ag20,-2.245471158,418.6047,687.6397,438.7047,0.608755785,0.39657122,0.197380017
Ca60Mg20Ag20,-2.245471158,401,666.1158,441.1303,0.601997447,0.412,0.157469943
Al20Ca65Mg15,-2.627357434,463,776,491,0.596649485,0.396287328,0.195596607
Ca65Mg15Zn20,-1.934044093,375,630,410,0.59524,0.40796,0.16837
Ca60Mg17.5Zn22.5,-1.82594418,383,650,421,0.58923,0.40755,0.168208579
Al32Ca58Mg10,-2.810043724,513,873,539,0.587628866,0.388888889,0.211502783
Ca62.5Mg17.5Zn20,-1.82594418,375,640,412,0.58594,0.40591,0.171276869
Ca65Mg15Ag20,-2.21160367,388.3721,664.5798,424.051,0.584387467,0.402725922,0.17817921
Ca60Mg15Zn25,-1.82594418,379,650,427,0.58308,0.41497,0.150950232
Mg65Zr35,-3.83618864,359,616,379,0.583,0.389,0.210819295
Al30Ca60Mg10,-2.810043724,508,873,523,0.581901489,0.378711079,0.235620543
Ca55Mg18Zn27,-1.82594418,389,671,419,0.57973,0.39528,0.194439043
Ca60Mg20Zn20,-1.82594418,378,660,415,0.57273,0.39981,0.182518389
Ca65Mg10Zn25,-1.934044093,377,659,412,0.57208,0.39768,0.187248385
Ca60Mg10Zn30,-1.915500342,380,666,400,0.57057,0.38241,0.223423745
Mg65Ni20Nd15,-2.616732385,459,805,501,0.57019,0.39636,0.1899
Mg75Ni15Nd10,-2.263728027,450,790,470,0.56962,0.37903,0.23164
Ca65Mg20Zn15,-1.875964028,380,668,405,0.56886,0.38645,0.213078775
Ca70Mg10Ag20,-2.21160367,377.907,673.9274,418.8147,0.560753232,0.398175517,0.183757552
Ca70Mg10Zn20,-1.934044093,367,657,399,0.5586,0.38965,0.203004466
Mg30Sr70,-1.671003602,390,699,,0.558,,
Ca55Mg15Zn30,-1.82594418,387,696,419,0.55603,0.38689,0.208947115
Mg70Ni15Nd15,-2.616732385,467,844,489,0.55332,0.373,0.24258
Ca55Mg20Zn25,-1.82594418,383,702,428,0.54558,0.39447,0.188868113
Al15Ca70Mg15,-2.472660443,420,771,460,0.544747082,0.386230059,0.207753806
Ca70Mg15Zn15,-1.934044093,371,688,397,0.53924,0.37488,0.233847017
Mg80Ni10Nd10,-2.263728027,454,878,471,0.51708,0.3536,0.28222
Ca65Mg25Zn10,-1.887705263,387,759,405,0.50988,0.3534,0.28015913
Mg35Sr65,-1.671003602,383,756,,0.507,,
Ca60Mg25Zn15,-1.82594418,377,744,409,0.50672,0.36485,0.249146673
Ca55Mg25Zn20,-1.82594418,375,751,418,0.49933,0.37123,0.231053604
Mg77Ni18Nd5,-2.263728027,429,887,437,0.48365,0.33207,0.32972
Mg90Ni5Nd5,-1.83504342,426,919,449,0.46355,0.33383,0.31532
Ca65Mg35,-1.887705263,411,987,414,0.417,0.296,0.404770791
Al28.5Ca56.5Mg15,-2.810043724,503,,528,,,